 Gaussian 16, Revision C.01,
 Gaussian 16:  ES64L-G16RevC.01  3-Jul-2019

 ----------------------------------------------------------------------
 # b3lyp/def2tzvp int(grid=ultrafine) symm=(follow,loose) EmpiricalDisp
 ersion=GD3BJ
 ----------------------------------------------------------------------

 ----------------------------------------
 b3lyp-d3bj optimized geometry using Gaussian
 ----------------------------------------
 Symbolic Z-matrix:
 Charge =  0 Multiplicity = 1

                         Standard orientation:
 ---------------------------------------------------------------------
 Center     Atomic      Atomic             Coordinates (Angstroms)
 Number     Number       Type             X           Y           Z
 ---------------------------------------------------------------------
      1          6           0        1.555771    1.258925   -0.337302
      2          6           0        0.966476   -0.151167   -0.381040
      3          6           0        1.810458   -1.128496    0.443265
      4          6           0       -0.464708   -0.180255    0.063913
      5          6           0       -1.238760    0.695759    1.001018
      6          6           0       -1.698648    0.478254   -0.407220
      7          6           0       -1.603858   -1.015367   -0.430231
      8          1           0        2.571558    1.263158   -0.736417
      9          1           0        1.601985    1.631144    0.688553
     10          1           0        0.958604    1.958714   -0.925045
     11          1           0        0.979623   -0.491648   -1.423699
     12          1           0        1.823265   -0.829666    1.494141
     13          1           0        2.842487   -1.154317    0.086510
     14          1           0        1.404138   -2.139576    0.387605
     15          1           0       -0.807510    1.663982    1.230599
     16          1           0       -1.803773    0.252223    1.820500
     17          1           0       -1.862132    1.182880   -1.205229
     18          1           0       -1.466064   -1.483383   -1.400268
     19          1           0       -2.202572   -1.599423    0.268330
 ---------------------------------------------------------------------

 SCF Done:  E(RB3LYP) =  -274.024247531     A.U. after   13 cycles

 The electronic state is 1-A.
 Alpha  occ. eigenvalues --  -10.18557 -10.18230 -10.18032 -10.17844 -10.17818
 Alpha  occ. eigenvalues --  -10.16055 -10.15714  -0.92598  -0.79434  -0.69269
 Alpha  occ. eigenvalues --   -0.68105  -0.61975  -0.57559  -0.53958  -0.49760
 Alpha  occ. eigenvalues --   -0.45807  -0.43630  -0.43152  -0.40765  -0.38832
 Alpha  occ. eigenvalues --   -0.37755  -0.36629  -0.34695  -0.34599  -0.30874
 Alpha  occ. eigenvalues --   -0.29951  -0.24096
 Alpha virt. eigenvalues --    0.03328   0.05389   0.06015   0.07048   0.08130
 Alpha virt. eigenvalues --    0.09025   0.10092   0.10753   0.10984   0.11383
 Alpha virt. eigenvalues --    0.12974   0.13845   0.14478   0.14985   0.15362

 Mulliken charges:
               1
     1  C   -0.366946
     2  C    0.026117
     3  C   -0.344510
     4  C   -0.006906
     5  C   -0.155539
     6  C   -0.153120
     7  C   -0.143829
     8  H    0.111314
     9  H    0.105248
    10  H    0.112100
    11  H    0.049671
    12  H    0.103971
    13  H    0.104434
    14  H    0.111999
    15  H    0.093971
    16  H    0.077261
    17  H    0.110722
    18  H    0.085301
    19  H    0.078743
 Sum of Mulliken charges =  -0.00000

 Dipole moment (field-independent basis, Debye):
    X=              0.6096    Y=              0.2099    Z=             -0.4893  Tot=              0.8094
 Quadrupole moment (field-independent basis, Debye-Ang):
   XX=            -47.9005   YY=            -45.4705   ZZ=            -44.7739
   XY=              0.3755   XZ=             -0.1492   YZ=              0.3320

 Normal termination of Gaussian 16 at Fri Jun  6 20:55:01 2025.
