 Gaussian 16, Revision C.01,
 Gaussian 16:  ES64L-G16RevC.01  3-Jul-2019

 ----------------------------------------------------------------------
 # b3lyp/def2tzvp int(grid=ultrafine) symm=(follow,loose) EmpiricalDisp
 ersion=GD3BJ
 ----------------------------------------------------------------------

 ----------------------------------------
 b3lyp-d3bj optimized geometry using Gaussian
 ----------------------------------------
 Symbolic Z-matrix:
 Charge =  0 Multiplicity = 1

                         Standard orientation:
 ---------------------------------------------------------------------
 Center     Atomic      Atomic             Coordinates (Angstroms)
 Number     Number       Type             X           Y           Z
 ---------------------------------------------------------------------
      1          6           0       -1.809747   -1.129001    0.443184
      2          6           0       -0.966694   -0.151121   -0.381416
      3          6           0       -1.556482    1.258669   -0.336863
      4          6           0        0.464652   -0.179751    0.063011
      5          6           0        1.604060   -1.015546   -0.429158
      6          6           0        1.699026    0.478137   -0.407325
      7          6           0        1.238259    0.696562    1.000448
      8          1           0       -2.841937   -1.155294    0.086910
      9          1           0       -1.822129   -0.830313    1.494114
     10          1           0       -1.402904   -2.139841    0.387122
     11          1           0       -0.980366   -0.491298   -1.424179
     12          1           0       -1.601913    1.630630    0.689120
     13          1           0       -2.572629    1.262471   -0.735090
     14          1           0       -0.960144    1.958795   -0.925053
     15          1           0        1.467514   -1.484321   -1.399009
     16          1           0        2.201902   -1.599024    0.270648
     17          1           0        1.864346    1.182067   -1.205573
     18          1           0        0.807232    1.665077    1.229104
     19          1           0        1.802580    0.253360    1.820592
 ---------------------------------------------------------------------

 SCF Done:  E(RB3LYP) =  -274.024247419     A.U. after   13 cycles

 The electronic state is 1-A.
 Alpha  occ. eigenvalues --  -10.18558 -10.18229 -10.18033 -10.17840 -10.17816
 Alpha  occ. eigenvalues --  -10.16054 -10.15714  -0.92598  -0.79436  -0.69268
 Alpha  occ. eigenvalues --   -0.68102  -0.61974  -0.57559  -0.53960  -0.49761
 Alpha  occ. eigenvalues --   -0.45807  -0.43631  -0.43154  -0.40764  -0.38831
 Alpha  occ. eigenvalues --   -0.37755  -0.36626  -0.34694  -0.34597  -0.30870
 Alpha  occ. eigenvalues --   -0.29947  -0.24102
 Alpha virt. eigenvalues --    0.03330   0.05390   0.06016   0.07048   0.08135
 Alpha virt. eigenvalues --    0.09024   0.10095   0.10754   0.10981   0.11383
 Alpha virt. eigenvalues --    0.12972   0.13844   0.14481   0.14982   0.15363

 Mulliken charges:
               1
     1  C   -0.344536
     2  C    0.026156
     3  C   -0.366968
     4  C   -0.007109
     5  C   -0.143647
     6  C   -0.153066
     7  C   -0.155565
     8  H    0.104435
     9  H    0.103981
    10  H    0.112005
    11  H    0.049686
    12  H    0.105272
    13  H    0.111300
    14  H    0.112115
    15  H    0.085269
    16  H    0.078707
    17  H    0.110760
    18  H    0.093970
    19  H    0.077236
 Sum of Mulliken charges =  -0.00000

 Dipole moment (field-independent basis, Debye):
    X=             -0.6086    Y=              0.2098    Z=             -0.4898  Tot=              0.8089
 Quadrupole moment (field-independent basis, Debye-Ang):
   XX=            -47.8959   YY=            -45.4708   ZZ=            -44.7741
   XY=             -0.3728   XZ=              0.1457   YZ=              0.3304

 Normal termination of Gaussian 16 at Fri Jun  6 20:55:01 2025.
