 Gaussian 16, Revision C.01,
 Gaussian 16:  ES64L-G16RevC.01  3-Jul-2019

 ----------------------------------------------------------------------
 # b3lyp/def2tzvp int(grid=ultrafine) symm=(follow,loose) EmpiricalDisp
 ersion=GD3BJ
 ----------------------------------------------------------------------

 ----------------------------------------
 b3lyp-d3bj optimized geometry using Gaussian
 ----------------------------------------
 Symbolic Z-matrix:
 Charge =  0 Multiplicity = 1

                         Standard orientation:
 ---------------------------------------------------------------------
 Center     Atomic      Atomic             Coordinates (Angstroms)
 Number     Number       Type             X           Y           Z
 ---------------------------------------------------------------------
      1          6           0        0.715628    1.069781   -0.036717
      2          6           0        1.517695    2.076398    0.161576
      3          6           0       -0.095127    0.069581   -0.242635
      4          6           0       -1.550838    0.313494   -0.587564
      5          6           0       -2.515482   -0.080136    0.535245
      6          6           0        0.356363   -1.372117   -0.149722
      7          6           0        1.831120   -1.575378    0.170080
      8          1           0        2.086909    2.518065   -0.649852
      9          1           0        1.648888    2.513212    1.146149
     10          1           0       -1.794775   -0.257071   -1.490517
     11          1           0       -1.687885    1.367428   -0.831563
     12          1           0       -2.444506   -1.141714    0.776333
     13          1           0       -3.547588    0.124092    0.244317
     14          1           0       -2.300151    0.486084    1.443127
     15          1           0        0.110645   -1.859705   -1.100565
     16          1           0       -0.254728   -1.879170    0.604049
     17          1           0        2.465682   -1.111402   -0.586368
     18          1           0        2.071603   -2.638848    0.211191
     19          1           0        2.089747   -1.130713    1.132116
 ---------------------------------------------------------------------

 SCF Done:  E(RB3LYP) =  -274.052927965     A.U. after   13 cycles

 The electronic state is 1-A.
 Alpha  occ. eigenvalues --  -10.18090 -10.17632 -10.17535 -10.17529 -10.16917
 Alpha  occ. eigenvalues --  -10.16252 -10.15763  -0.82947  -0.75909  -0.75421
 Alpha  occ. eigenvalues --   -0.68865  -0.62147  -0.61012  -0.49314  -0.46381
 Alpha  occ. eigenvalues --   -0.46192  -0.44890  -0.43484  -0.42898  -0.39204
 Alpha  occ. eigenvalues --   -0.38034  -0.36438  -0.35307  -0.34933  -0.33481
 Alpha  occ. eigenvalues --   -0.26323  -0.24487
 Alpha virt. eigenvalues --    0.01235   0.01842   0.03448   0.05511   0.06678
 Alpha virt. eigenvalues --    0.07281   0.09302   0.10521   0.10758   0.11400
 Alpha virt. eigenvalues --    0.11934   0.12787   0.14051   0.14766   0.16933

 Mulliken charges:
               1
     1  C    0.071558
     2  C   -0.306714
     3  C   -0.073181
     4  C   -0.130470
     5  C   -0.352624
     6  C   -0.151414
     7  C   -0.331936
     8  H    0.124717
     9  H    0.124341
    10  H    0.085156
    11  H    0.101093
    12  H    0.107090
    13  H    0.109977
    14  H    0.112031
    15  H    0.089411
    16  H    0.093990
    17  H    0.109292
    18  H    0.108521
    19  H    0.109162
 Sum of Mulliken charges =  -0.00000

 Dipole moment (field-independent basis, Debye):
    X=             -0.4125    Y=             -0.4771    Z=             -0.0866  Tot=              0.6366
 Quadrupole moment (field-independent basis, Debye-Ang):
   XX=            -45.5550   YY=            -44.8544   ZZ=            -45.5815
   XY=              0.9683   XZ=              0.2885   YZ=              0.5001

 Normal termination of Gaussian 16 at Fri Jun  6 20:54:59 2025.
